LAMMPS (15 Sep 2022)
OMP_NUM_THREADS environment is not set. Defaulting to 1 thread. (src/comm.cpp:98)
  using 1 OpenMP thread(s) per MPI task
Lattice spacing in x,y,z = 1.4938016 1.4938016 1.4938016
Created orthogonal box = (0 0 0) to (6.6943295 6.6943295 6.6943295)
  1 by 2 by 2 MPI processor grid
Created 365 atoms
  using lattice units in orthogonal box = (0 0 0) to (6.6943295 6.6943295 6.6943295)
  create_atoms CPU = 0.000 seconds
Setting atom values ...
  77 settings made for type
5 atoms in group extra
Deleted 5 atoms, new total = 360
288 atoms in group typea
72 atoms in group typeb
Minimizing initial structure
Generated 0 of 1 mixed pair_coeff terms from geometric mixing rule
Neighbor list info ...
  update: every = 1 steps, delay = 0 steps, check = yes
  max neighbors/atom: 2000, page size: 100000
  master list distance cutoff = 3
  ghost atom cutoff = 3
  binsize = 1.5, bins = 5 5 5
  1 neighbor lists, perpetual/occasional/extra = 1 0 0
  (1) pair lj/cut, perpetual
      attributes: half, newton on
      pair build: half/bin/atomonly/newton
      stencil: half/bin/3d
      bin: standard
Setting up Verlet run ...
  Unit style    : lj
  Current step  : 0
  Time step     : 0.001
Per MPI rank memory allocation (min/avg/max) = 4.13 | 4.13 | 4.131 Mbytes
   Step          Temp          E_pair         E_mol          TotEng         Press     
         0   0              31.924966      0              31.924966      202.31477    
      1000   15.884536      7.9779771      0              31.738595      107.46448    
      2000   17.225344      5.9694166      0              31.73566       98.119254    
      3000   17.041806      6.2477053      0              31.739407      98.328932    
      4000   16.342986      7.2942712      0              31.740655      103.54511    
      5000   16.488682      7.0735922      0              31.737912      102.50661    
      6000   17.193786      6.0196932      0              31.738731      97.401312    
      7000   17.570058      5.4596157      0              31.741494      94.74889     
      8000   17.177303      6.0456136      0              31.739997      97.861044    
      9000   16.986798      6.3310021      0              31.740421      98.990805    
     10000   17.084804      6.1828112      0              31.738831      98.23776     
Loop time of 0.979531 on 4 procs for 10000 steps with 360 atoms

Performance: 882054.412 tau/day, 10208.963 timesteps/s, 3.675 Matom-step/s
99.5% CPU use with 4 MPI tasks x 1 OpenMP threads

MPI task timing breakdown:
Section |  min time  |  avg time  |  max time  |%varavg| %total
---------------------------------------------------------------
Pair    | 0.55122    | 0.57281    | 0.60667    |   2.7 | 58.48
Neigh   | 0.10453    | 0.10643    | 0.10857    |   0.5 | 10.87
Comm    | 0.23657    | 0.27136    | 0.29375    |   4.1 | 27.70
Output  | 0.0010117  | 0.0010345  | 0.0010989  |   0.1 |  0.11
Modify  | 0.0092087  | 0.0098906  | 0.010965   |   0.7 |  1.01
Other   |            | 0.018      |            |       |  1.84

Nlocal:             90 ave          94 max          83 min
Histogram: 1 0 0 0 0 0 1 0 0 2
Nghost:         1246.5 ave        1262 max        1233 min
Histogram: 1 1 0 0 0 0 0 1 0 1
Neighs:         5168.5 ave        5488 max        4910 min
Histogram: 1 0 0 1 1 0 0 0 0 1

Total # of neighbors = 20674
Ave neighs/atom = 57.427778
Neighbor list builds = 609
Dangerous builds = 0
Total wall time: 0:00:00
LAMMPS (15 Sep 2022)
OMP_NUM_THREADS environment is not set. Defaulting to 1 thread. (src/comm.cpp:98)
  using 1 OpenMP thread(s) per MPI task
Reading restart file ...
  restart file = 15 Sep 2022, LAMMPS = 15 Sep 2022
  restoring atom style atomic from restart
  orthogonal box = (0 0 0) to (6.6943295 6.6943295 6.6943295)
  1 by 2 by 2 MPI processor grid
  restoring pair style lj/cut from restart
  360 atoms
  read_restart CPU = 0.001 seconds
Setting up annealing run
Generated 0 of 1 mixed pair_coeff terms from geometric mixing rule
Neighbor list info ...
  update: every = 1 steps, delay = 20 steps, check = yes
  max neighbors/atom: 2000, page size: 100000
  master list distance cutoff = 3
  ghost atom cutoff = 3
  binsize = 1.5, bins = 5 5 5
  1 neighbor lists, perpetual/occasional/extra = 1 0 0
  (1) pair lj/cut, perpetual
      attributes: half, newton on
      pair build: half/bin/atomonly/newton
      stencil: half/bin/3d
      bin: standard
Setting up Verlet run ...
  Unit style    : lj
  Current step  : 0
  Time step     : 0.002
Per MPI rank memory allocation (min/avg/max) = 4.114 | 4.115 | 4.115 Mbytes
   Step          Temp          E_pair         E_mol          TotEng         Press     
         0   1.5            6.1828112      0              8.4265612      79.587945    
      1000   1.564295      -5.3238204      0             -2.9838958      14.598239    
      2000   1.5719047     -5.2427833      0             -2.8914758      15.337174    
      3000   1.4653185     -5.236039       0             -3.0441668      15.204187    
      4000   1.5846926     -5.2994989      0             -2.9290629      14.862282    
      5000   1.4722794     -5.3228821      0             -3.1205975      14.472836    
      6000   1.4974666     -5.3452619      0             -3.1053014      14.566842    
      7000   1.6623149     -5.3623951      0             -2.8758492      14.57415     
      8000   1.4133228     -5.2251162      0             -3.1110208      15.343904    
      9000   1.4580862     -5.2664032      0             -3.0853492      14.911174    
     10000   1.5401862     -5.3385509      0             -3.0346891      14.460129    
Loop time of 0.854743 on 4 procs for 10000 steps with 360 atoms

Performance: 2021660.952 tau/day, 11699.427 timesteps/s, 4.212 Matom-step/s
99.6% CPU use with 4 MPI tasks x 1 OpenMP threads

MPI task timing breakdown:
Section |  min time  |  avg time  |  max time  |%varavg| %total
---------------------------------------------------------------
Pair    | 0.50625    | 0.52718    | 0.53946    |   1.7 | 61.68
Neigh   | 0.05777    | 0.059551   | 0.06068    |   0.4 |  6.97
Comm    | 0.22203    | 0.23425    | 0.25527    |   2.6 | 27.41
Output  | 0.00063317 | 0.00065197 | 0.00070726 |   0.0 |  0.08
Modify  | 0.022946   | 0.024396   | 0.026201   |   0.9 |  2.85
Other   |            | 0.008714   |            |       |  1.02

Nlocal:             90 ave          93 max          86 min
Histogram: 1 0 0 0 1 0 0 0 1 1
Nghost:        1232.25 ave        1242 max        1225 min
Histogram: 1 0 1 0 1 0 0 0 0 1
Neighs:         5204.5 ave        5447 max        4836 min
Histogram: 1 0 0 0 0 1 0 0 1 1

Total # of neighbors = 20818
Ave neighs/atom = 57.827778
Neighbor list builds = 347
Dangerous builds = 9
Total wall time: 0:00:00
LAMMPS (15 Sep 2022)
OMP_NUM_THREADS environment is not set. Defaulting to 1 thread. (src/comm.cpp:98)
  using 1 OpenMP thread(s) per MPI task
Reading restart file ...
  restart file = 15 Sep 2022, LAMMPS = 15 Sep 2022
  restoring atom style atomic from restart
  orthogonal box = (0 0 0) to (6.6943295 6.6943295 6.6943295)
  1 by 2 by 2 MPI processor grid
  restoring pair style lj/cut from restart
  360 atoms
  read_restart CPU = 0.001 seconds
Setting up annealing run
Resetting global fix info from restart file:
  fix style: nvt, fix ID: 1
Generated 0 of 1 mixed pair_coeff terms from geometric mixing rule
All restart file global fix info was re-assigned
Neighbor list info ...
  update: every = 1 steps, delay = 20 steps, check = yes
  max neighbors/atom: 2000, page size: 100000
  master list distance cutoff = 3
  ghost atom cutoff = 3
  binsize = 1.5, bins = 5 5 5
  1 neighbor lists, perpetual/occasional/extra = 1 0 0
  (1) pair lj/cut, perpetual
      attributes: half, newton on
      pair build: half/bin/atomonly/newton
      stencil: half/bin/3d
      bin: standard
Setting up Verlet run ...
  Unit style    : lj
  Current step  : 0
  Time step     : 0.002
Per MPI rank memory allocation (min/avg/max) = 4.115 | 4.116 | 4.116 Mbytes
   Step          Temp          E_pair         E_mol          TotEng         Press     
         0   1             -5.3385509      0             -3.8427176      13.813706    
      2000   1.0051799     -5.9071873      0             -4.4036057      10.732514    
      4000   1.0844504     -6.0154898      0             -4.3933327      10.084143    
      6000   0.96257793    -6.0454741      0             -4.605618       9.5967911    
      8000   0.96568417    -6.0074122      0             -4.5629096      9.8846388    
     10000   0.92675557    -5.9558959      0             -4.5696241      10.169365    
     12000   0.96596372    -5.9045924      0             -4.4596716      10.610339    
     14000   1.0223424     -6.0401915      0             -4.5109376      9.5563327    
     16000   0.99652109    -6.0540627      0             -4.5634332      9.7218841    
     18000   0.99665514    -5.9401912      0             -4.4493612      10.200412    
     20000   0.98337306    -6.1363741      0             -4.6654119      8.9669356    
     22000   1.0119193     -5.9170116      0             -4.403349       10.519465    
     24000   0.99573311    -6.0069238      0             -4.5174731      9.8218456    
     26000   0.96723515    -6.1316945      0             -4.6848719      9.0337882    
     28000   0.90749342    -5.9917288      0             -4.6342699      9.9810955    
     30000   1.0018193     -5.9051069      0             -4.4065522      10.531491    
     32000   1.0452058     -6.0230304      0             -4.4595767      9.7148835    
     34000   1.0204785     -6.0428749      0             -4.5164091      9.7182201    
     36000   1.1079762     -6.0221076      0             -4.3647598      9.8842126    
     38000   0.94012802    -5.9890377      0             -4.5827628      9.9176246    
     40000   0.96990444    -5.8919484      0             -4.441133       10.641226    
     42000   1.0037726     -5.9894059      0             -4.4879293      9.903414     
     44000   0.98916601    -5.9624316      0             -4.4828041      10.179936    
     46000   0.94458068    -6.0144283      0             -4.6014931      9.8800052    
     48000   1.0372152     -5.9737274      0             -4.4222263      10.205191    
     50000   0.90216103    -5.958117       0             -4.6086344      10.094231    
Loop time of 4.29132 on 4 procs for 50000 steps with 360 atoms

Performance: 2013368.640 tau/day, 11651.439 timesteps/s, 4.195 Matom-step/s
99.7% CPU use with 4 MPI tasks x 1 OpenMP threads

MPI task timing breakdown:
Section |  min time  |  avg time  |  max time  |%varavg| %total
---------------------------------------------------------------
Pair    | 2.5901     | 2.6387     | 2.7291     |   3.5 | 61.49
Neigh   | 0.23038    | 0.2351     | 0.24442    |   1.2 |  5.48
Comm    | 1.1416     | 1.2404     | 1.2925     |   5.5 | 28.90
Output  | 0.0015458  | 0.0015934  | 0.0017335  |   0.2 |  0.04
Modify  | 0.12253    | 0.1244     | 0.12846    |   0.7 |  2.90
Other   |            | 0.0511     |            |       |  1.19

Nlocal:             90 ave          94 max          85 min
Histogram: 1 0 0 0 1 0 0 1 0 1
Nghost:           1242 ave        1253 max        1222 min
Histogram: 1 0 0 0 0 1 0 0 0 2
Neighs:        5191.25 ave        5519 max        4911 min
Histogram: 1 0 0 1 0 1 0 0 0 1

Total # of neighbors = 20765
Ave neighs/atom = 57.680556
Neighbor list builds = 1354
Dangerous builds = 0
Total wall time: 0:00:04
LAMMPS (15 Sep 2022)
OMP_NUM_THREADS environment is not set. Defaulting to 1 thread. (src/comm.cpp:98)
  using 1 OpenMP thread(s) per MPI task
Reading restart file ...
  restart file = 15 Sep 2022, LAMMPS = 15 Sep 2022
  restoring atom style atomic from restart
  orthogonal box = (0 0 0) to (6.6943295 6.6943295 6.6943295)
  1 by 2 by 2 MPI processor grid
  restoring pair style lj/cut from restart
  360 atoms
  read_restart CPU = 0.001 seconds
Setting up annealing run
Resetting global fix info from restart file:
  fix style: nvt, fix ID: 1
Generated 0 of 1 mixed pair_coeff terms from geometric mixing rule
All restart file global fix info was re-assigned
Neighbor list info ...
  update: every = 1 steps, delay = 25 steps, check = yes
  max neighbors/atom: 2000, page size: 100000
  master list distance cutoff = 3
  ghost atom cutoff = 3
  binsize = 1.5, bins = 5 5 5
  1 neighbor lists, perpetual/occasional/extra = 1 0 0
  (1) pair lj/cut, perpetual
      attributes: half, newton on
      pair build: half/bin/atomonly/newton
      stencil: half/bin/3d
      bin: standard
Setting up Verlet run ...
  Unit style    : lj
  Current step  : 0
  Time step     : 0.002
Per MPI rank memory allocation (min/avg/max) = 4.115 | 4.116 | 4.116 Mbytes
   Step          Temp          E_pair         E_mol          TotEng         Press     
         0   0.9           -5.958117       0             -4.611867       10.091645    
      5000   0.89662562    -6.1311584      0             -4.7899559      8.9744594    
     10000   0.90841796    -6.1812017      0             -4.8223598      8.8194136    
     15000   0.83190166    -6.2150257      0             -4.9706395      8.3814406    
     20000   0.88784638    -6.132553       0             -4.8044828      9.0947532    
     25000   0.93611333    -6.2344378      0             -4.8341683      8.4258201    
     30000   0.88573081    -6.1626681      0             -4.8377624      8.7704143    
     35000   0.88284561    -6.1228224      0             -4.8022325      9.1491744    
     40000   0.83690652    -6.1929094      0             -4.9410367      8.5244319    
     45000   0.89664546    -6.0266243      0             -4.6853921      9.9014078    
     50000   0.86219336    -6.2427695      0             -4.9530719      8.3822653    
     55000   0.89738544    -6.203106       0             -4.860767       8.6648175    
     60000   0.89405244    -6.2308825      0             -4.893529       8.4143656    
     65000   0.94247752    -6.1728451      0             -4.7630558      8.965492     
     70000   0.8471293     -6.2124157      0             -4.9452514      8.4341717    
     75000   0.92246896    -6.1143627      0             -4.7345029      9.1162314    
     80000   0.84648999    -6.1719054      0             -4.9056975      8.706938     
     85000   0.87126871    -6.1631091      0             -4.8598363      8.8068727    
     90000   0.89740788    -6.1946663      0             -4.8522937      8.6331365    
     95000   0.93587449    -6.0364425      0             -4.6365302      9.717468     
    100000   0.86462272    -6.1551213      0             -4.8617898      8.9135707    
    105000   0.8961054     -6.2871679      0             -4.9467436      8.1195778    
    110000   0.84363694    -6.0383001      0             -4.7763599      9.6078383    
    115000   0.92423951    -6.1697628      0             -4.7872546      8.958611     
    120000   0.87412426    -6.1461692      0             -4.838625       9.0126289    
    125000   0.9796233     -6.1702648      0             -4.7049116      8.8325352    
    130000   0.93575591    -6.1315864      0             -4.7318515      9.0686658    
    135000   0.88648817    -6.0845055      0             -4.758467       9.2793789    
    140000   0.85551861    -6.0806568      0             -4.8009436      9.1610539    
    145000   0.89703935    -6.2591732      0             -4.9173519      8.2742985    
    150000   0.90369682    -6.2380635      0             -4.8862837      8.4530268    
Loop time of 12.3118 on 4 procs for 150000 steps with 360 atoms

Performance: 2105296.887 tau/day, 12183.431 timesteps/s, 4.386 Matom-step/s
99.7% CPU use with 4 MPI tasks x 1 OpenMP threads

MPI task timing breakdown:
Section |  min time  |  avg time  |  max time  |%varavg| %total
---------------------------------------------------------------
Pair    | 7.6385     | 7.7251     | 7.8023     |   2.8 | 62.75
Neigh   | 0.64946    | 0.65359    | 0.65897    |   0.5 |  5.31
Comm    | 3.3681     | 3.4425     | 3.5257     |   3.9 | 27.96
Output  | 0.0012824  | 0.001339   | 0.0015044  |   0.3 |  0.01
Modify  | 0.34612    | 0.35553    | 0.36484    |   1.4 |  2.89
Other   |            | 0.1338     |            |       |  1.09

Nlocal:             90 ave          92 max          88 min
Histogram: 1 0 0 0 0 2 0 0 0 1
Nghost:        1232.75 ave        1243 max        1224 min
Histogram: 2 0 0 0 0 0 0 1 0 1
Neighs:        5175.25 ave        5308 max        5065 min
Histogram: 1 0 1 0 0 0 1 0 0 1

Total # of neighbors = 20701
Ave neighs/atom = 57.502778
Neighbor list builds = 3840
Dangerous builds = 5
Total wall time: 0:00:12
LAMMPS (15 Sep 2022)
OMP_NUM_THREADS environment is not set. Defaulting to 1 thread. (src/comm.cpp:98)
  using 1 OpenMP thread(s) per MPI task
Reading restart file ...
  restart file = 15 Sep 2022, LAMMPS = 15 Sep 2022
  restoring atom style atomic from restart
  orthogonal box = (0 0 0) to (6.6943295 6.6943295 6.6943295)
  1 by 2 by 2 MPI processor grid
  restoring pair style lj/cut from restart
  360 atoms
  read_restart CPU = 0.001 seconds
Setting up annealing run
Resetting global fix info from restart file:
  fix style: nvt, fix ID: 1
Generated 0 of 1 mixed pair_coeff terms from geometric mixing rule
All restart file global fix info was re-assigned
Neighbor list info ...
  update: every = 1 steps, delay = 25 steps, check = yes
  max neighbors/atom: 2000, page size: 100000
  master list distance cutoff = 3
  ghost atom cutoff = 3
  binsize = 1.5, bins = 5 5 5
  1 neighbor lists, perpetual/occasional/extra = 1 0 0
  (1) pair lj/cut, perpetual
      attributes: half, newton on
      pair build: half/bin/atomonly/newton
      stencil: half/bin/3d
      bin: standard
Setting up Verlet run ...
  Unit style    : lj
  Current step  : 0
  Time step     : 0.002
Per MPI rank memory allocation (min/avg/max) = 4.115 | 4.115 | 4.116 Mbytes
   Step          Temp          E_pair         E_mol          TotEng         Press     
         0   0.8           -6.2380635      0             -5.0413968      8.3289363    
      5000   0.82072618    -6.3960475      0             -5.1683779      7.1577967    
     10000   0.78536444    -6.3425259      0             -5.1677516      7.3776253    
     15000   0.82437909    -6.4298594      0             -5.1967257      6.9946779    
     20000   0.78918776    -6.2702557      0             -5.0897624      7.9990345    
     25000   0.74181435    -6.4307638      0             -5.3211332      6.9576017    
     30000   0.75101462    -6.4515397      0             -5.328147       6.7775232    
     35000   0.82794555    -6.4273995      0             -5.188931       7.1243412    
     40000   0.83427051    -6.3969504      0             -5.1490208      7.2141032    
     45000   0.81605865    -6.3734316      0             -5.1527439      7.5519515    
     50000   0.74306802    -6.3840101      0             -5.2725042      7.3374326    
     55000   0.80253538    -6.3463955      0             -5.1459363      7.7718293    
     60000   0.75401363    -6.3883444      0             -5.2604656      7.1875573    
     65000   0.83232025    -6.4294669      0             -5.1844545      7.1411867    
     70000   0.80995711    -6.4255254      0             -5.2139646      7.2284708    
     75000   0.81482521    -6.3646132      0             -5.1457705      7.6274834    
     80000   0.84203343    -6.2969679      0             -5.0374262      7.8349413    
     85000   0.80386173    -6.4184182      0             -5.215975       7.0021424    
     90000   0.78504914    -6.331624       0             -5.1573213      7.7978595    
     95000   0.83092714    -6.3069616      0             -5.064033       7.7680779    
    100000   0.77569241    -6.2656042      0             -5.1052976      7.8904578    
    105000   0.84437664    -6.3482207      0             -5.085174       7.668965     
    110000   0.7602393     -6.3677867      0             -5.2305954      7.443122     
    115000   0.80203797    -6.4048589      0             -5.2051438      7.3619675    
    120000   0.75478746    -6.3495386      0             -5.2205023      7.5656209    
    125000   0.70137664    -6.3510138      0             -5.3018712      7.5002362    
    130000   0.81737664    -6.3557628      0             -5.1331036      7.6738254    
    135000   0.81760238    -6.2829408      0             -5.0599439      8.0577271    
    140000   0.78709053    -6.2955292      0             -5.1181729      7.9503694    
    145000   0.83491696    -6.3682672      0             -5.1193706      7.5868205    
    150000   0.78847697    -6.2868353      0             -5.1074052      7.9047593    
Loop time of 12.366 on 4 procs for 150000 steps with 360 atoms

Performance: 2096076.701 tau/day, 12130.074 timesteps/s, 4.367 Matom-step/s
99.7% CPU use with 4 MPI tasks x 1 OpenMP threads

MPI task timing breakdown:
Section |  min time  |  avg time  |  max time  |%varavg| %total
---------------------------------------------------------------
Pair    | 7.6523     | 7.7746     | 7.9515     |   4.3 | 62.87
Neigh   | 0.60538    | 0.60922    | 0.61184    |   0.3 |  4.93
Comm    | 3.3137     | 3.4824     | 3.6067     |   6.2 | 28.16
Output  | 0.0012127  | 0.0012708  | 0.0014413  |   0.3 |  0.01
Modify  | 0.34631    | 0.35486    | 0.35926    |   0.9 |  2.87
Other   |            | 0.1436     |            |       |  1.16

Nlocal:             90 ave          94 max          84 min
Histogram: 1 0 0 0 0 1 0 0 0 2
Nghost:        1251.25 ave        1269 max        1239 min
Histogram: 2 0 0 0 0 1 0 0 0 1
Neighs:        5197.75 ave        5352 max        4885 min
Histogram: 1 0 0 0 0 0 0 1 0 2

Total # of neighbors = 20791
Ave neighs/atom = 57.752778
Neighbor list builds = 3585
Dangerous builds = 0
Total wall time: 0:00:12
LAMMPS (15 Sep 2022)
OMP_NUM_THREADS environment is not set. Defaulting to 1 thread. (src/comm.cpp:98)
  using 1 OpenMP thread(s) per MPI task
Reading restart file ...
  restart file = 15 Sep 2022, LAMMPS = 15 Sep 2022
  restoring atom style atomic from restart
  orthogonal box = (0 0 0) to (6.6943295 6.6943295 6.6943295)
  1 by 2 by 2 MPI processor grid
  restoring pair style lj/cut from restart
  360 atoms
  read_restart CPU = 0.002 seconds
Setting up annealing run
Resetting global fix info from restart file:
  fix style: nvt, fix ID: 1
Generated 0 of 1 mixed pair_coeff terms from geometric mixing rule
All restart file global fix info was re-assigned
Neighbor list info ...
  update: every = 1 steps, delay = 25 steps, check = yes
  max neighbors/atom: 2000, page size: 100000
  master list distance cutoff = 3
  ghost atom cutoff = 3
  binsize = 1.5, bins = 5 5 5
  1 neighbor lists, perpetual/occasional/extra = 1 0 0
  (1) pair lj/cut, perpetual
      attributes: half, newton on
      pair build: half/bin/atomonly/newton
      stencil: half/bin/3d
      bin: standard
Setting up Verlet run ...
  Unit style    : lj
  Current step  : 0
  Time step     : 0.003
Per MPI rank memory allocation (min/avg/max) = 4.115 | 4.116 | 4.116 Mbytes
   Step          Temp          E_pair         E_mol          TotEng         Press     
         0   0.7           -6.2868353      0             -5.239752       7.7988819    
      6000   0.66128412    -6.494876       0             -5.5057052      6.6463712    
     12000   0.69236699    -6.4624581      0             -5.4267925      6.7576508    
     18000   0.69785404    -6.5468864      0             -5.5030131      6.3709092    
     24000   0.72548863    -6.4487808      0             -5.3635707      6.8196035    
     30000   0.69696402    -6.4221395      0             -5.3795975      6.9938673    
     36000   0.74095474    -6.5142978      0             -5.405953       6.5001088    
     42000   0.71401555    -6.4931483      0             -5.4251001      6.6110495    
     48000   0.7187788     -6.517021       0             -5.4418477      6.4958265    
     54000   0.63940761    -6.4439735      0             -5.4875263      6.6814157    
     60000   0.65869578    -6.5819084      0             -5.5966093      5.8147534    
     66000   0.66597815    -6.5339903      0             -5.537798       6.2688032    
     72000   0.71297363    -6.5440673      0             -5.4775776      6.2800555    
     78000   0.66924747    -6.4546927      0             -5.45361        6.8086301    
     84000   0.70295566    -6.6056337      0             -5.5541291      5.8646943    
     90000   0.67426745    -6.4738379      0             -5.4652462      6.5543927    
     96000   0.69162948    -6.5903763      0             -5.5558138      6.0170551    
    102000   0.66608476    -6.5117084      0             -5.5153566      6.6368728    
    108000   0.6806913     -6.5373753      0             -5.5191745      6.3138867    
    114000   0.69426229    -6.4616111      0             -5.4231104      6.9376094    
    120000   0.70064637    -6.4050147      0             -5.3569646      7.3320123    
    126000   0.67705839    -6.6052974      0             -5.5925309      5.9455816    
    132000   0.66977576    -6.5607929      0             -5.55892        6.0222704    
    138000   0.75525416    -6.486311       0             -5.3565766      6.8298915    
    144000   0.76007352    -6.5815333      0             -5.44459        6.2551709    
    150000   0.68576222    -6.5543956      0             -5.5286096      6.1519984    
    156000   0.72885068    -6.4275319      0             -5.3372928      7.1464915    
    162000   0.69298809    -6.5563833      0             -5.5197886      6.4385291    
    168000   0.67098357    -6.5026548      0             -5.4989752      6.3757342    
    174000   0.6574555     -6.535944       0             -5.5525001      6.3029918    
    180000   0.69039105    -6.4853282      0             -5.4526183      6.731832     
Loop time of 15.195 on 4 procs for 180000 steps with 360 atoms

Performance: 3070474.503 tau/day, 11845.966 timesteps/s, 4.265 Matom-step/s
99.7% CPU use with 4 MPI tasks x 1 OpenMP threads

MPI task timing breakdown:
Section |  min time  |  avg time  |  max time  |%varavg| %total
---------------------------------------------------------------
Pair    | 9.2225     | 9.3823     | 9.4852     |   3.5 | 61.75
Neigh   | 1.0021     | 1.0091     | 1.0178     |   0.7 |  6.64
Comm    | 4.1373     | 4.2326     | 4.3909     |   4.9 | 27.85
Output  | 0.0013395  | 0.0013964  | 0.0015649  |   0.3 |  0.01
Modify  | 0.42212    | 0.43544    | 0.45125    |   1.9 |  2.87
Other   |            | 0.1343     |            |       |  0.88

Nlocal:             90 ave          93 max          89 min
Histogram: 3 0 0 0 0 0 0 0 0 1
Nghost:         1245.5 ave        1263 max        1232 min
Histogram: 1 0 0 2 0 0 0 0 0 1
Neighs:           5190 ave        5354 max        5013 min
Histogram: 1 0 0 0 0 2 0 0 0 1

Total # of neighbors = 20760
Ave neighs/atom = 57.666667
Neighbor list builds = 5920
Dangerous builds = 421
Total wall time: 0:00:15
LAMMPS (15 Sep 2022)
OMP_NUM_THREADS environment is not set. Defaulting to 1 thread. (src/comm.cpp:98)
  using 1 OpenMP thread(s) per MPI task
Reading restart file ...
  restart file = 15 Sep 2022, LAMMPS = 15 Sep 2022
  restoring atom style atomic from restart
  orthogonal box = (0 0 0) to (6.6943295 6.6943295 6.6943295)
  1 by 2 by 2 MPI processor grid
  restoring pair style lj/cut from restart
  360 atoms
  read_restart CPU = 0.002 seconds
Setting up annealing run
Resetting global fix info from restart file:
  fix style: nvt, fix ID: 1
Generated 0 of 1 mixed pair_coeff terms from geometric mixing rule
All restart file global fix info was re-assigned
Neighbor list info ...
  update: every = 1 steps, delay = 25 steps, check = yes
  max neighbors/atom: 2000, page size: 100000
  master list distance cutoff = 3
  ghost atom cutoff = 3
  binsize = 1.5, bins = 5 5 5
  1 neighbor lists, perpetual/occasional/extra = 1 0 0
  (1) pair lj/cut, perpetual
      attributes: half, newton on
      pair build: half/bin/atomonly/newton
      stencil: half/bin/3d
      bin: standard
Setting up Verlet run ...
  Unit style    : lj
  Current step  : 0
  Time step     : 0.003
Per MPI rank memory allocation (min/avg/max) = 4.114 | 4.115 | 4.117 Mbytes
   Step          Temp          E_pair         E_mol          TotEng         Press     
         0   0.65          -6.4853282      0             -5.5130365      6.6834973    
     70000   0.65961671    -6.6268652      0             -5.6401886      5.7090785    
    140000   0.6867783     -6.6720801      0             -5.6447742      5.3182679    
    210000   0.69929958    -6.6732474      0             -5.6272118      5.5498563    
    280000   0.66462095    -6.6522337      0             -5.6580715      5.5954701    
    350000   0.6256403     -6.6264349      0             -5.6905813      5.6400966    
Loop time of 29.3127 on 4 procs for 350000 steps with 360 atoms

Performance: 3094901.126 tau/day, 11940.205 timesteps/s, 4.298 Matom-step/s
99.7% CPU use with 4 MPI tasks x 1 OpenMP threads

MPI task timing breakdown:
Section |  min time  |  avg time  |  max time  |%varavg| %total
---------------------------------------------------------------
Pair    | 17.913     | 18.152     | 18.31      |   3.5 | 61.93
Neigh   | 1.852      | 1.8659     | 1.8805     |   0.8 |  6.37
Comm    | 7.9868     | 8.1722     | 8.434      |   5.7 | 27.88
Output  | 0.0017322  | 0.0017475  | 0.0017923  |   0.1 |  0.01
Modify  | 0.83806    | 0.8505     | 0.86458    |   1.1 |  2.90
Other   |            | 0.2704     |            |       |  0.92

Nlocal:             90 ave          97 max          82 min
Histogram: 1 0 0 0 0 1 1 0 0 1
Nghost:        1230.25 ave        1242 max        1212 min
Histogram: 1 0 0 0 0 0 1 0 1 1
Neighs:           5208 ave        5497 max        4886 min
Histogram: 1 0 0 0 1 0 1 0 0 1

Total # of neighbors = 20832
Ave neighs/atom = 57.866667
Neighbor list builds = 10985
Dangerous builds = 418
Total wall time: 0:00:29
LAMMPS (15 Sep 2022)
OMP_NUM_THREADS environment is not set. Defaulting to 1 thread. (src/comm.cpp:98)
  using 1 OpenMP thread(s) per MPI task
Reading restart file ...
  restart file = 15 Sep 2022, LAMMPS = 15 Sep 2022
  restoring atom style atomic from restart
  orthogonal box = (0 0 0) to (6.6943295 6.6943295 6.6943295)
  1 by 2 by 2 MPI processor grid
  restoring pair style lj/cut from restart
  360 atoms
  read_restart CPU = 0.002 seconds
Setting up annealing run
Resetting global fix info from restart file:
  fix style: nvt, fix ID: 1
Generated 0 of 1 mixed pair_coeff terms from geometric mixing rule
All restart file global fix info was re-assigned
Neighbor list info ...
  update: every = 1 steps, delay = 25 steps, check = yes
  max neighbors/atom: 2000, page size: 100000
  master list distance cutoff = 3
  ghost atom cutoff = 3
  binsize = 1.5, bins = 5 5 5
  1 neighbor lists, perpetual/occasional/extra = 1 0 0
  (1) pair lj/cut, perpetual
      attributes: half, newton on
      pair build: half/bin/atomonly/newton
      stencil: half/bin/3d
      bin: standard
Setting up Verlet run ...
  Unit style    : lj
  Current step  : 0
  Time step     : 0.003
Per MPI rank memory allocation (min/avg/max) = 4.114 | 4.114 | 4.114 Mbytes
   Step          Temp          E_pair         E_mol          TotEng         Press     
         0   0.6           -6.6264349      0             -5.7289349      5.6094137    
     50000   0.5959331     -6.6512653      0             -5.7598487      5.4666862    
    100000   0.5859682     -6.6887328      0             -5.812222       5.3233333    
    150000   0.61877824    -6.6601804      0             -5.7345913      5.4884649    
    200000   0.59683474    -6.7073403      0             -5.814575       5.0253528    
    250000   0.56474708    -6.7273292      0             -5.8825617      4.9443127    
    300000   0.61270831    -6.7784252      0             -5.8619156      4.6212036    
    350000   0.59262426    -6.6768858      0             -5.7904187      5.3157028    
    400000   0.63869623    -6.7230863      0             -5.7677032      5.1467981    
    450000   0.58138516    -6.5954109      0             -5.7257556      5.758127     
    500000   0.59529166    -6.7227128      0             -5.8322557      5.0229781    
    550000   0.58394887    -6.7758215      0             -5.9023314      4.7534154    
    600000   0.61548339    -6.7883597      0             -5.8676991      4.6225958    
    650000   0.58934516    -6.7160429      0             -5.8344808      5.0574281    
    700000   0.6003029     -6.691889       0             -5.7939359      5.2525904    
    750000   0.59513757    -6.6664617      0             -5.7762351      5.4869373    
    800000   0.58578468    -6.6834015      0             -5.8071653      5.2014249    
    850000   0.57566933    -6.645084       0             -5.7839787      5.4470044    
    900000   0.6290675     -6.7599856      0             -5.8190055      4.7631059    
    950000   0.60158797    -6.6794099      0             -5.7795346      5.4765016    
   1000000   0.59656466    -6.6648059      0             -5.7724446      5.4874664    
Loop time of 83.8718 on 4 procs for 1000000 steps with 360 atoms

Performance: 3090431.098 tau/day, 11922.959 timesteps/s, 4.292 Matom-step/s
99.7% CPU use with 4 MPI tasks x 1 OpenMP threads

MPI task timing breakdown:
Section |  min time  |  avg time  |  max time  |%varavg| %total
---------------------------------------------------------------
Pair    | 51.209     | 52.246     | 53.163     |  10.3 | 62.29
Neigh   | 5.0331     | 5.0763     | 5.106      |   1.3 |  6.05
Comm    | 22.441     | 23.344     | 24.342     |  15.2 | 27.83
Output  | 0.002243   | 0.002295   | 0.0024486  |   0.2 |  0.00
Modify  | 2.3212     | 2.4077     | 2.4998     |   4.1 |  2.87
Other   |            | 0.7954     |            |       |  0.95

Nlocal:             90 ave          91 max          88 min
Histogram: 1 0 0 0 0 0 1 0 0 2
Nghost:        1246.75 ave        1273 max        1219 min
Histogram: 1 0 0 1 0 0 0 1 0 1
Neighs:        5185.25 ave        5259 max        5122 min
Histogram: 2 0 0 0 0 0 0 1 0 1

Total # of neighbors = 20741
Ave neighs/atom = 57.613889
Neighbor list builds = 29917
Dangerous builds = 573
Total wall time: 0:01:23
LAMMPS (15 Sep 2022)
OMP_NUM_THREADS environment is not set. Defaulting to 1 thread. (src/comm.cpp:98)
  using 1 OpenMP thread(s) per MPI task
Reading restart file ...
  restart file = 15 Sep 2022, LAMMPS = 15 Sep 2022
  restoring atom style atomic from restart
  orthogonal box = (0 0 0) to (6.6943295 6.6943295 6.6943295)
  1 by 2 by 2 MPI processor grid
  restoring pair style lj/cut from restart
  360 atoms
  read_restart CPU = 0.002 seconds
Setting up annealing run
Resetting global fix info from restart file:
  fix style: nvt, fix ID: 1
Generated 0 of 1 mixed pair_coeff terms from geometric mixing rule
All restart file global fix info was re-assigned
Neighbor list info ...
  update: every = 1 steps, delay = 25 steps, check = yes
  max neighbors/atom: 2000, page size: 100000
  master list distance cutoff = 3
  ghost atom cutoff = 3
  binsize = 1.5, bins = 5 5 5
  1 neighbor lists, perpetual/occasional/extra = 1 0 0
  (1) pair lj/cut, perpetual
      attributes: half, newton on
      pair build: half/bin/atomonly/newton
      stencil: half/bin/3d
      bin: standard
Setting up Verlet run ...
  Unit style    : lj
  Current step  : 0
  Time step     : 0.003
Per MPI rank memory allocation (min/avg/max) = 4.115 | 4.115 | 4.116 Mbytes
   Step          Temp          E_pair         E_mol          TotEng         Press     
         0   0.55          -6.6648059      0             -5.8420976      5.431744     
     30000   0.52415446    -6.8286103      0             -6.0445626      4.1939915    
     60000   0.5651633     -6.7796103      0             -5.9342202      4.6584126    
     90000   0.58456667    -6.7569467      0             -5.8825324      4.7896508    
    120000   0.57846823    -6.8806173      0             -6.0153252      4.1509674    
    150000   0.59101644    -6.738843       0             -5.8547809      4.91953      
    180000   0.54018716    -6.7742328      0             -5.9662028      4.7299905    
    210000   0.54988659    -6.8219788      0             -5.9994401      4.3934213    
    240000   0.56532265    -6.8500655      0             -6.0044371      4.1142453    
    270000   0.55209976    -6.7905993      0             -5.9647501      4.6062063    
    300000   0.55950112    -6.819447       0             -5.9825266      4.4875989    
    330000   0.54807338    -6.7512018      0             -5.9313754      4.9333023    
    360000   0.55567937    -6.7495847      0             -5.9183809      4.7509783    
    390000   0.56986337    -6.7631462      0             -5.9107255      4.6453858    
    420000   0.58596099    -6.807366       0             -5.930866       4.5578482    
    450000   0.52043962    -6.749788       0             -5.9712971      4.8264389    
    480000   0.56910248    -6.8146774      0             -5.963395       4.4429879    
    510000   0.57017479    -6.7943347      0             -5.9414482      4.5753768    
    540000   0.55464444    -6.7195479      0             -5.8898922      4.9593926    
    570000   0.55143143    -6.7572995      0             -5.93245        4.7102331    
    600000   0.56873723    -6.8042168      0             -5.9534807      4.4432106    
    630000   0.60108766    -6.8232996      0             -5.9241727      4.5564729    
    660000   0.57321085    -6.7804448      0             -5.9230169      4.6672514    
    690000   0.55017843    -6.8058109      0             -5.9828357      4.3023046    
    720000   0.58911965    -6.785675       0             -5.9044502      4.8327403    
    750000   0.53936756    -6.7638446      0             -5.9570406      4.6131543    
    780000   0.5250561     -6.8229544      0             -6.037558       4.4354887    
    810000   0.53978161    -6.8134152      0             -6.0059919      4.4847631    
    840000   0.5822428     -6.8522662      0             -5.981328       4.1756526    
    870000   0.58145618    -6.8459643      0             -5.9762028      4.1966995    
    900000   0.53439486    -6.8527526      0             -6.0533869      4.1646342    
    930000   0.5487769     -6.814615       0             -5.9937362      4.3370289    
    960000   0.54127728    -6.7698176      0             -5.960157       4.6135535    
    990000   0.55398935    -6.7508137      0             -5.922138       4.8055392    
   1020000   0.55690366    -6.7866618      0             -5.9536267      4.572947     
   1050000   0.56365318    -6.8130433      0             -5.9699121      4.2935375    
   1080000   0.52643923    -6.7435476      0             -5.9560823      4.6981783    
   1110000   0.57030674    -6.7873716      0             -5.9342877      4.6475469    
   1140000   0.56396376    -6.8290378      0             -5.985442       4.2997184    
   1170000   0.56548807    -6.7927423      0             -5.9468664      4.5221314    
   1200000   0.57307216    -6.8109334      0             -5.9537129      4.4640999    
   1230000   0.53276289    -6.8833068      0             -6.0863823      3.9299857    
   1260000   0.54074431    -6.8153758      0             -6.0065125      4.2456925    
   1290000   0.55812368    -6.8998005      0             -6.0649405      3.9604334    
   1320000   0.58246076    -6.8533874      0             -5.9821232      4.1289789    
   1350000   0.54481916    -6.8505778      0             -6.0356192      4.0434005    
   1380000   0.53732551    -6.8231706      0             -6.0194211      4.4323057    
   1410000   0.57198446    -6.7936421      0             -5.9380487      4.4569601    
   1440000   0.56311238    -6.8301942      0             -5.9878719      4.3037093    
   1470000   0.53171922    -6.7897016      0             -5.9943383      4.6303811    
   1500000   0.58686244    -6.8284831      0             -5.9506347      4.4151673    
   1530000   0.54139759    -6.8142684      0             -6.0044278      4.3931616    
   1560000   0.52361278    -6.8919427      0             -6.1087052      3.896224     
   1590000   0.51215269    -6.8203054      0             -6.0542103      4.3553216    
   1620000   0.53376725    -6.8418722      0             -6.0434453      4.2133966    
   1650000   0.54380303    -6.7547835      0             -5.9413448      4.8256163    
   1680000   0.58980855    -6.7826953      0             -5.90044        4.616284     
   1710000   0.50551549    -6.8453551      0             -6.0891882      4.2260655    
   1740000   0.51451048    -6.8758118      0             -6.1061899      3.9581992    
   1770000   0.54912439    -6.7829224      0             -5.9615239      4.6645282    
